# Forces      
# CofR        : (3.250000e+00 0.000000e+00 2.000000e-01)
# Time        forces(pressure viscous)	moments(pressure viscous)
0             	((4.492263e-05 2.963607e+02 2.122184e+02) (-2.900414e+00 -4.617960e-04 -1.281830e-04)) ((9.411161e+00 -1.967678e-01 -3.468646e-01) (-2.885925e-05 9.546232e-02 -1.145440e-01))
100           	((-8.853370e-01 3.248264e+02 2.093078e+02) (-2.119877e+00 -2.603663e-02 3.540148e-02)) ((7.230488e+00 -1.677979e+00 6.349982e+00) (-1.127371e-03 7.214527e-02 -2.053295e-01))
200           	((-1.376522e+00 3.228750e+02 2.086461e+02) (-1.729657e+00 -2.192756e-02 2.818658e-02)) ((7.155831e+00 -2.832988e+00 1.055801e+01) (-2.958093e-04 7.699843e-02 -1.634096e-01))
300           	((-1.656499e+00 3.232474e+02 2.086340e+02) (-1.577072e+00 -1.794384e-02 1.060718e-02)) ((7.107833e+00 -3.641242e+00 1.310709e+01) (7.985087e-04 9.427517e-02 -1.458715e-01))
400           	((-1.782153e+00 3.249255e+02 2.088923e+02) (-1.480734e+00 -1.452408e-02 -7.329323e-03)) ((7.118110e+00 -3.990805e+00 1.423470e+01) (1.736470e-03 1.098114e-01 -1.332292e-01))
500           	((-1.716757e+00 3.256062e+02 2.086870e+02) (-1.407906e+00 -1.181286e-02 -1.628145e-02)) ((7.191256e+00 -3.945371e+00 1.371490e+01) (2.098213e-03 1.193056e-01 -1.227056e-01))
600           	((-1.517429e+00 3.246131e+02 2.077200e+02) (-1.354345e+00 -1.129615e-02 -1.688801e-02)) ((7.272170e+00 -3.622268e+00 1.214171e+01) (1.939817e-03 1.216106e-01 -1.152372e-01))
700           	((-1.285662e+00 3.228612e+02 2.064727e+02) (-1.311379e+00 -1.267726e-02 -1.333730e-02)) ((7.319722e+00 -3.101822e+00 1.029238e+01) (1.449597e-03 1.199398e-01 -1.098584e-01))
800           	((-1.039235e+00 3.200215e+02 2.045696e+02) (-1.272170e+00 -1.511638e-02 -8.889398e-03)) ((7.359426e+00 -2.214361e+00 8.223282e+00) (8.657851e-04 1.169348e-01 -1.058170e-01))
900           	((-8.543033e-01 3.173334e+02 2.025429e+02) (-1.239023e+00 -1.950608e-02 -2.360732e-03)) ((7.385456e+00 -1.362474e+00 6.546110e+00) (5.039514e-05 1.134352e-01 -1.033511e-01))
1000          	((-7.666751e-01 3.170681e+02 2.020762e+02) (-1.222431e+00 -2.386533e-02 2.104121e-03)) ((7.383548e+00 -9.856844e-01 5.709095e+00) (-5.934824e-04 1.119225e-01 -1.025346e-01))
1100          	((-6.836799e-01 3.173193e+02 2.020900e+02) (-1.213306e+00 -2.623420e-02 2.797486e-03)) ((7.369390e+00 -7.045395e-01 4.953383e+00) (-8.146866e-04 1.116764e-01 -1.020391e-01))
1200          	((-5.964112e-01 3.175978e+02 2.023486e+02) (-1.200998e+00 -2.708482e-02 2.766583e-03)) ((7.354826e+00 -3.655990e-01 4.159171e+00) (-9.071729e-04 1.112835e-01 -1.007689e-01))
1300          	((-4.914809e-01 3.188040e+02 2.033278e+02) (-1.191255e+00 -2.730680e-02 3.099419e-03)) ((7.337634e+00 1.429050e-01 3.206057e+00) (-9.952136e-04 1.106078e-01 -9.997847e-02))
1400          	((-3.394639e-01 3.203728e+02 2.043696e+02) (-1.182047e+00 -2.671918e-02 2.790890e-03)) ((7.328114e+00 7.399701e-01 1.860109e+00) (-9.822914e-04 1.088673e-01 -9.989261e-02))
1500          	((-2.022463e-01 3.216881e+02 2.050749e+02) (-1.174361e+00 -2.630257e-02 2.208249e-03)) ((7.326393e+00 1.077187e+00 6.794941e-01) (-9.813956e-04 1.059920e-01 -1.004780e-01))
1600          	((-1.754084e-01 3.223730e+02 2.056007e+02) (-1.166281e+00 -2.592377e-02 1.477805e-03)) ((7.308423e+00 1.051878e+00 4.664831e-01) (-9.528429e-04 1.035717e-01 -1.004386e-01))
1700          	((-2.104911e-01 3.222366e+02 2.058961e+02) (-1.157255e+00 -2.524371e-02 3.127937e-04)) ((7.277349e+00 1.001802e+00 7.881914e-01) (-8.210355e-04 1.013046e-01 -1.002131e-01))
1800          	((-2.519091e-01 3.222408e+02 2.061767e+02) (-1.150816e+00 -2.433440e-02 -4.354688e-04)) ((7.256069e+00 8.904659e-01 1.157534e+00) (-6.709778e-04 9.974737e-02 -1.004114e-01))
1900          	((-2.970225e-01 3.220509e+02 2.062146e+02) (-1.144644e+00 -2.349064e-02 -1.493353e-03)) ((7.241546e+00 6.119424e-01 1.594972e+00) (-5.372148e-04 9.757957e-02 -1.006093e-01))
2000          	((-3.682748e-01 3.216553e+02 2.061402e+02) (-1.141086e+00 -2.338469e-02 -1.507700e-03)) ((7.230253e+00 3.017950e-01 2.219678e+00) (-4.932047e-04 9.675487e-02 -1.005900e-01))
2100          	((-4.289096e-01 3.212599e+02 2.059795e+02) (-1.137854e+00 -2.340271e-02 -1.342879e-03)) ((7.223374e+00 -7.348605e-04 2.766604e+00) (-4.533240e-04 9.657024e-02 -1.002344e-01))
2200          	((-4.780620e-01 3.208144e+02 2.057048e+02) (-1.134393e+00 -2.362324e-02 -8.309799e-04)) ((7.224183e+00 -2.562296e-01 3.197682e+00) (-4.416563e-04 9.674616e-02 -9.968349e-02))
2300          	((-5.107232e-01 3.205758e+02 2.055041e+02) (-1.133213e+00 -2.400425e-02 -2.046007e-04)) ((7.229008e+00 -4.702409e-01 3.488755e+00) (-4.395622e-04 9.740227e-02 -9.920420e-02))
2400          	((-5.284640e-01 3.204416e+02 2.053348e+02) (-1.132112e+00 -2.441899e-02 7.675504e-04)) ((7.238203e+00 -6.163972e-01 3.641680e+00) (-4.895504e-04 9.814830e-02 -9.863425e-02))
2500          	((-5.213984e-01 3.206596e+02 2.052961e+02) (-1.132667e+00 -2.461541e-02 1.123936e-03)) ((7.249282e+00 -6.841327e-01 3.572049e+00) (-4.904123e-04 9.872954e-02 -9.829539e-02))
2600          	((-5.003658e-01 3.207801e+02 2.051751e+02) (-1.133200e+00 -2.478419e-02 1.294940e-03)) ((7.265426e+00 -7.010447e-01 3.383301e+00) (-4.936285e-04 9.940827e-02 -9.790631e-02))
2700          	((-4.708067e-01 3.210060e+02 2.051187e+02) (-1.132919e+00 -2.500928e-02 1.438327e-03)) ((7.281760e+00 -6.874271e-01 3.118051e+00) (-5.238837e-04 9.982812e-02 -9.756201e-02))
2800          	((-4.310412e-01 3.213737e+02 2.051679e+02) (-1.133393e+00 -2.528966e-02 1.693781e-03)) ((7.296913e+00 -5.943448e-01 2.754628e+00) (-5.758245e-04 1.002428e-01 -9.726317e-02))
2900          	((-3.833831e-01 3.217237e+02 2.051939e+02) (-1.134085e+00 -2.536031e-02 1.539933e-03)) ((7.309222e+00 -4.819789e-01 2.342798e+00) (-6.053419e-04 1.002306e-01 -9.721858e-02))
3000          	((-3.359536e-01 3.220471e+02 2.052016e+02) (-1.134732e+00 -2.526372e-02 7.267152e-04)) ((7.317923e+00 -3.541346e-01 1.938787e+00) (-5.861121e-04 9.983456e-02 -9.726837e-02))
3100          	((-2.963262e-01 3.222787e+02 2.052189e+02) (-1.134176e+00 -2.518148e-02 -1.298476e-04)) ((7.327120e+00 -2.266935e-01 1.593523e+00) (-5.800136e-04 9.903544e-02 -9.729487e-02))
3200          	((-2.847422e-01 3.223052e+02 2.052204e+02) (-1.133416e+00 -2.532820e-02 -7.133608e-04)) ((7.332241e+00 -1.288978e-01 1.473571e+00) (-5.909630e-04 9.845560e-02 -9.722345e-02))
3300          	((-2.730197e-01 3.223711e+02 2.052754e+02) (-1.132252e+00 -2.552322e-02 -7.511386e-04)) ((7.335710e+00 -2.062513e-02 1.352892e+00) (-6.363089e-04 9.814121e-02 -9.713893e-02))
3400          	((-2.552159e-01 3.225229e+02 2.053654e+02) (-1.132666e+00 -2.564859e-02 -8.411151e-04)) ((7.336407e+00 9.095620e-02 1.192593e+00) (-6.747196e-04 9.778078e-02 -9.727507e-02))
3500          	((-2.402806e-01 3.227090e+02 2.054965e+02) (-1.132798e+00 -2.566928e-02 -1.222151e-03)) ((7.335623e+00 1.978901e-01 1.054412e+00) (-6.809624e-04 9.735068e-02 -9.740880e-02))
3600          	((-2.370635e-01 3.228048e+02 2.056098e+02) (-1.131894e+00 -2.558556e-02 -1.571110e-03)) ((7.333013e+00 2.768412e-01 1.016942e+00) (-6.796902e-04 9.683355e-02 -9.752418e-02))
3700          	((-2.397133e-01 3.228444e+02 2.057021e+02) (-1.130871e+00 -2.554123e-02 -1.806426e-03)) ((7.329347e+00 3.307629e-01 1.033333e+00) (-6.783915e-04 9.643191e-02 -9.760429e-02))
3800          	((-2.462973e-01 3.228736e+02 2.058066e+02) (-1.130336e+00 -2.551253e-02 -1.960714e-03)) ((7.325360e+00 3.726660e-01 1.085724e+00) (-6.783786e-04 9.606104e-02 -9.771055e-02))
3900          	((-2.556410e-01 3.228795e+02 2.058924e+02) (-1.129851e+00 -2.546823e-02 -2.078478e-03)) ((7.320538e+00 3.969138e-01 1.165155e+00) (-6.746432e-04 9.569594e-02 -9.786611e-02))
4000          	((-2.667543e-01 3.228665e+02 2.059637e+02) (-1.129725e+00 -2.537164e-02 -2.219159e-03)) ((7.314592e+00 4.000072e-01 1.267202e+00) (-6.642430e-04 9.531467e-02 -9.805284e-02))
4100          	((-2.848794e-01 3.227945e+02 2.060148e+02) (-1.129294e+00 -2.521759e-02 -2.404791e-03)) ((7.307596e+00 3.801994e-01 1.430424e+00) (-6.480791e-04 9.491127e-02 -9.816865e-02))
4200          	((-3.096491e-01 3.226386e+02 2.060207e+02) (-1.128530e+00 -2.502181e-02 -2.651935e-03)) ((7.300124e+00 3.374180e-01 1.650902e+00) (-6.208424e-04 9.457865e-02 -9.824659e-02))
4300          	((-3.409717e-01 3.224346e+02 2.060000e+02) (-1.127809e+00 -2.486534e-02 -2.868015e-03)) ((7.293250e+00 2.682503e-01 1.928243e+00) (-5.895069e-04 9.436274e-02 -9.829157e-02))
4400          	((-3.739033e-01 3.222249e+02 2.059674e+02) (-1.127964e+00 -2.475609e-02 -2.970981e-03)) ((7.287010e+00 1.916829e-01 2.215090e+00) (-5.630120e-04 9.432976e-02 -9.835146e-02))
4500          	((-4.041804e-01 3.220042e+02 2.059085e+02) (-1.127774e+00 -2.463930e-02 -3.125278e-03)) ((7.281732e+00 1.140341e-01 2.477758e+00) (-5.216077e-04 9.444924e-02 -9.836026e-02))
4600          	((-4.293829e-01 3.217631e+02 2.058255e+02) (-1.127488e+00 -2.455665e-02 -3.048541e-03)) ((7.278918e+00 3.697076e-02 2.700077e+00) (-5.024420e-04 9.469062e-02 -9.829244e-02))
4700          	((-4.513830e-01 3.215437e+02 2.057330e+02) (-1.127300e+00 -2.458053e-02 -2.827553e-03)) ((7.276230e+00 -3.506042e-02 2.891295e+00) (-4.987206e-04 9.496354e-02 -9.821796e-02))
4800          	((-4.693764e-01 3.213654e+02 2.056464e+02) (-1.127392e+00 -2.458475e-02 -2.701922e-03)) ((7.274503e+00 -9.981068e-02 3.046623e+00) (-4.796458e-04 9.535997e-02 -9.815103e-02))
4900          	((-4.793275e-01 3.211929e+02 2.055472e+02) (-1.127236e+00 -2.461836e-02 -2.413131e-03)) ((7.275175e+00 -1.463160e-01 3.134854e+00) (-4.810706e-04 9.579602e-02 -9.800070e-02))
5000          	((-4.834456e-01 3.211048e+02 2.054741e+02) (-1.127809e+00 -2.470926e-02 -2.044056e-03)) ((7.275915e+00 -1.792390e-01 3.171062e+00) (-4.969811e-04 9.621008e-02 -9.790941e-02))
5100          	((-4.811137e-01 3.210512e+02 2.054114e+02) (-1.127109e+00 -2.475485e-02 -1.878117e-03)) ((7.277861e+00 -1.920213e-01 3.149866e+00) (-4.939985e-04 9.651104e-02 -9.777442e-02))
5200          	((-4.748540e-01 3.210255e+02 2.053566e+02) (-1.127167e+00 -2.486451e-02 -1.583435e-03)) ((7.280557e+00 -1.956054e-01 3.094991e+00) (-5.120562e-04 9.684168e-02 -9.765373e-02))
5300          	((-4.641449e-01 3.210539e+02 2.053320e+02) (-1.127448e+00 -2.496766e-02 -1.363031e-03)) ((7.283546e+00 -1.823774e-01 3.000431e+00) (-5.260816e-04 9.711331e-02 -9.757002e-02))
5400          	((-4.503706e-01 3.211289e+02 2.053297e+02) (-1.127565e+00 -2.507253e-02 -1.088361e-03)) ((7.286738e+00 -1.571971e-01 2.878045e+00) (-5.504280e-04 9.729457e-02 -9.751780e-02))
5500          	((-4.335723e-01 3.212388e+02 2.053450e+02) (-1.127809e+00 -2.515893e-02 -9.477096e-04)) ((7.290253e+00 -1.235712e-01 2.730273e+00) (-5.626859e-04 9.742345e-02 -9.747804e-02))
5600          	((-4.164020e-01 3.213715e+02 2.053774e+02) (-1.128295e+00 -2.526073e-02 -7.524091e-04)) ((7.293489e+00 -8.498172e-02 2.579323e+00) (-5.875591e-04 9.749253e-02 -9.746121e-02))
5700          	((-3.998819e-01 3.215226e+02 2.054263e+02) (-1.127981e+00 -2.529807e-02 -7.079470e-04)) ((7.295845e+00 -4.461393e-02 2.435271e+00) (-5.982081e-04 9.742006e-02 -9.745682e-02))
5800          	((-3.828197e-01 3.216820e+02 2.054815e+02) (-1.128313e+00 -2.532095e-02 -7.550158e-04)) ((7.298093e+00 -4.198280e-03 2.288078e+00) (-6.054040e-04 9.733352e-02 -9.750290e-02))
5900          	((-3.709478e-01 3.218087e+02 2.055358e+02) (-1.128342e+00 -2.533749e-02 -8.135802e-04)) ((7.299288e+00 2.818594e-02 2.186224e+00) (-6.115651e-04 9.717272e-02 -9.752641e-02))
6000          	((-3.626244e-01 3.219219e+02 2.055922e+02) (-1.128079e+00 -2.532865e-02 -9.463970e-04)) ((7.299738e+00 5.443953e-02 2.114941e+00) (-6.099180e-04 9.694878e-02 -9.757023e-02))
6100          	((-3.579102e-01 3.220064e+02 2.056405e+02) (-1.127954e+00 -2.531605e-02 -1.082889e-03)) ((7.299605e+00 7.237627e-02 2.075670e+00) (-6.073653e-04 9.674846e-02 -9.758951e-02))
6200          	((-3.568318e-01 3.220636e+02 2.056798e+02) (-1.127911e+00 -2.527063e-02 -1.249462e-03)) ((7.298944e+00 8.070010e-02 2.067978e+00) (-5.996020e-04 9.653700e-02 -9.763625e-02))
6300          	((-3.596145e-01 3.220824e+02 2.057066e+02) (-1.127296e+00 -2.520029e-02 -1.433518e-03)) ((7.297798e+00 8.023033e-02 2.093621e+00) (-5.893243e-04 9.628790e-02 -9.767346e-02))
6400          	((-3.643454e-01 3.220820e+02 2.057244e+02) (-1.127424e+00 -2.516816e-02 -1.585966e-03)) ((7.296480e+00 7.356390e-02 2.136197e+00) (-5.806551e-04 9.617278e-02 -9.769832e-02))
6500          	((-3.711797e-01 3.220537e+02 2.057291e+02) (-1.127852e+00 -2.512476e-02 -1.705697e-03)) ((7.294983e+00 6.064508e-02 2.196851e+00) (-5.724812e-04 9.610802e-02 -9.773521e-02))
6600          	((-3.792881e-01 3.220094e+02 2.057250e+02) (-1.127120e+00 -2.507309e-02 -1.839692e-03)) ((7.293572e+00 4.373592e-02 2.267981e+00) (-5.602426e-04 9.595312e-02 -9.774167e-02))
6700          	((-3.876584e-01 3.219504e+02 2.057099e+02) (-1.126996e+00 -2.502793e-02 -1.943288e-03)) ((7.292209e+00 2.464429e-02 2.341264e+00) (-5.499767e-04 9.592219e-02 -9.774267e-02))
6800          	((-3.958114e-01 3.218842e+02 2.056885e+02) (-1.127326e+00 -2.500962e-02 -1.999055e-03)) ((7.291193e+00 4.664639e-03 2.412431e+00) (-5.420546e-04 9.596300e-02 -9.775924e-02))
6900          	((-4.029504e-01 3.218153e+02 2.056607e+02) (-1.127147e+00 -2.499469e-02 -2.032770e-03)) ((7.290347e+00 -1.385836e-02 2.474335e+00) (-5.347547e-04 9.598622e-02 -9.775669e-02))
7000          	((-4.085196e-01 3.217506e+02 2.056314e+02) (-1.127171e+00 -2.501104e-02 -2.049116e-03)) ((7.289877e+00 -2.929579e-02 2.522635e+00) (-5.292524e-04 9.606543e-02 -9.775273e-02))
7100          	((-4.124092e-01 3.216961e+02 2.056031e+02) (-1.127438e+00 -2.503506e-02 -1.999997e-03)) ((7.289705e+00 -4.177142e-02 2.556360e+00) (-5.298111e-04 9.615786e-02 -9.775062e-02))
7200          	((-4.144605e-01 3.216514e+02 2.055766e+02) (-1.127373e+00 -2.505703e-02 -1.952022e-03)) ((7.289761e+00 -4.914005e-02 2.573464e+00) (-5.296504e-04 9.623527e-02 -9.774341e-02))
7300          	((-4.150140e-01 3.216192e+02 2.055539e+02) (-1.127399e+00 -2.508638e-02 -1.887509e-03)) ((7.290097e+00 -5.311569e-02 2.577671e+00) (-5.326642e-04 9.632124e-02 -9.771844e-02))
7400          	((-4.136494e-01 3.215968e+02 2.055347e+02) (-1.127637e+00 -2.513240e-02 -1.795312e-03)) ((7.290753e+00 -5.154307e-02 2.565249e+00) (-5.395383e-04 9.639913e-02 -9.771591e-02))
7500          	((-4.114239e-01 3.216002e+02 2.055267e+02) (-1.127920e+00 -2.517294e-02 -1.688698e-03)) ((7.291229e+00 -4.801479e-02 2.544873e+00) (-5.481403e-04 9.646639e-02 -9.772082e-02))
7600          	((-4.076715e-01 3.216124e+02 2.055241e+02) (-1.127895e+00 -2.519586e-02 -1.653686e-03)) ((7.291926e+00 -3.984294e-02 2.511545e+00) (-5.511426e-04 9.652158e-02 -9.769922e-02))
7700          	((-4.034132e-01 3.216319e+02 2.055258e+02) (-1.128231e+00 -2.522859e-02 -1.567161e-03)) ((7.292774e+00 -2.996945e-02 2.474055e+00) (-5.603468e-04 9.655910e-02 -9.772129e-02))
7800          	((-3.986273e-01 3.216622e+02 2.055353e+02) (-1.128244e+00 -2.523977e-02 -1.523218e-03)) ((7.293424e+00 -1.749746e-02 2.432117e+00) (-5.660710e-04 9.655577e-02 -9.772821e-02))
7900          	((-3.944090e-01 3.217028e+02 2.055497e+02) (-1.128349e+00 -2.526032e-02 -1.471569e-03)) ((7.293775e+00 -6.809006e-03 2.395363e+00) (-5.724550e-04 9.654763e-02 -9.774458e-02))
8000          	((-3.906423e-01 3.217396e+02 2.055651e+02) (-1.128706e+00 -2.525143e-02 -1.494050e-03)) ((7.294015e+00 3.205431e-03 2.362665e+00) (-5.727182e-04 9.653207e-02 -9.778177e-02))
8100          	((-3.879488e-01 3.217708e+02 2.055809e+02) (-1.128323e+00 -2.524933e-02 -1.485990e-03)) ((7.294259e+00 1.154925e-02 2.339129e+00) (-5.746570e-04 9.645709e-02 -9.775933e-02))
8200          	((-3.858181e-01 3.217997e+02 2.055977e+02) (-1.128122e+00 -2.524746e-02 -1.509791e-03)) ((7.294328e+00 1.852020e-02 2.320785e+00) (-5.758460e-04 9.641712e-02 -9.775059e-02))
8300          	((-3.849160e-01 3.218290e+02 2.056151e+02) (-1.128181e+00 -2.521086e-02 -1.528863e-03)) ((7.294110e+00 2.143849e-02 2.313291e+00) (-5.754652e-04 9.634900e-02 -9.777488e-02))
8400          	((-3.851476e-01 3.218434e+02 2.056272e+02) (-1.128144e+00 -2.517087e-02 -1.608832e-03)) ((7.293781e+00 2.187160e-02 2.315870e+00) (-5.687302e-04 9.630706e-02 -9.778016e-02))
8500          	((-3.859824e-01 3.218490e+02 2.056357e+02) (-1.127850e+00 -2.516224e-02 -1.613189e-03)) ((7.293646e+00 2.070343e-02 2.323620e+00) (-5.699183e-04 9.626085e-02 -9.775058e-02))
8600          	((-3.876397e-01 3.218533e+02 2.056432e+02) (-1.127925e+00 -2.513384e-02 -1.668909e-03)) ((7.293080e+00 1.736512e-02 2.338492e+00) (-5.647733e-04 9.621841e-02 -9.777215e-02))
8700          	((-3.897362e-01 3.218468e+02 2.056441e+02) (-1.127766e+00 -2.509616e-02 -1.727581e-03)) ((7.292749e+00 1.174713e-02 2.357104e+00) (-5.591634e-04 9.617664e-02 -9.777564e-02))
8800          	((-3.924292e-01 3.218325e+02 2.056415e+02) (-1.127652e+00 -2.508106e-02 -1.739824e-03)) ((7.292357e+00 4.596308e-03 2.380789e+00) (-5.566336e-04 9.618993e-02 -9.775187e-02))
8900          	((-3.951335e-01 3.218162e+02 2.056367e+02) (-1.127541e+00 -2.506757e-02 -1.777678e-03)) ((7.292024e+00 -2.474942e-03 2.404337e+00) (-5.523683e-04 9.617309e-02 -9.774294e-02))
9000          	((-3.975643e-01 3.217966e+02 2.056286e+02) (-1.127336e+00 -2.505884e-02 -1.788041e-03)) ((7.291808e+00 -9.555012e-03 2.425593e+00) (-5.503667e-04 9.618450e-02 -9.772446e-02))
9100          	((-3.995408e-01 3.217771e+02 2.056194e+02) (-1.127169e+00 -2.506018e-02 -1.784253e-03)) ((7.291721e+00 -1.587860e-02 2.442878e+00) (-5.493984e-04 9.621076e-02 -9.769796e-02))
9200          	((-4.013118e-01 3.217570e+02 2.056094e+02) (-1.127445e+00 -2.507767e-02 -1.786441e-03)) ((7.291709e+00 -2.084670e-02 2.457989e+00) (-5.479374e-04 9.627280e-02 -9.769994e-02))
9300          	((-4.020312e-01 3.217436e+02 2.056006e+02) (-1.127361e+00 -2.507616e-02 -1.760993e-03)) ((7.291856e+00 -2.366159e-02 2.463972e+00) (-5.482697e-04 9.628261e-02 -9.769762e-02))
9400          	((-4.022996e-01 3.217333e+02 2.055922e+02) (-1.127353e+00 -2.509274e-02 -1.752380e-03)) ((7.291972e+00 -2.532337e-02 2.466193e+00) (-5.478827e-04 9.632490e-02 -9.769073e-02))
9500          	((-4.019728e-01 3.217266e+02 2.055856e+02) (-1.127844e+00 -2.512145e-02 -1.721709e-03)) ((7.292193e+00 -2.518989e-02 2.463010e+00) (-5.500009e-04 9.637834e-02 -9.771459e-02))
9600          	((-4.011459e-01 3.217250e+02 2.055809e+02) (-1.127442e+00 -2.512291e-02 -1.714671e-03)) ((7.292452e+00 -2.373741e-02 2.455618e+00) (-5.498495e-04 9.635927e-02 -9.770594e-02))
9700          	((-3.998858e-01 3.217274e+02 2.055786e+02) (-1.127642e+00 -2.514683e-02 -1.698589e-03)) ((7.292752e+00 -2.108181e-02 2.444598e+00) (-5.518187e-04 9.639879e-02 -9.771688e-02))
9800          	((-3.984565e-01 3.217324e+02 2.055779e+02) (-1.127900e+00 -2.516774e-02 -1.663162e-03)) ((7.293013e+00 -1.738071e-02 2.431900e+00) (-5.558644e-04 9.641254e-02 -9.772905e-02))
9900          	((-3.968303e-01 3.217396e+02 2.055791e+02) (-1.127706e+00 -2.517591e-02 -1.650968e-03)) ((7.293292e+00 -1.298814e-02 2.417618e+00) (-5.575286e-04 9.638376e-02 -9.773483e-02))
10000         	((-3.952908e-01 3.217503e+02 2.055823e+02) (-1.128029e+00 -2.519545e-02 -1.625073e-03)) ((7.293428e+00 -8.713624e-03 2.404158e+00) (-5.617011e-04 9.642036e-02 -9.775201e-02))
